                         Program Version 6.0.1  -  RELEASE   -
|  1> ! MP2 TIGHTSCF TIGHTOPT OPT def2-TZVPP
|  2>
|  3> %MaxCore 100000
|  4>
|  5> * xyz 0 1
|  6> C      -0.00000000     -0.80142131      0.00000013
|  7> H       0.00000000     -1.41063055     -0.89396835
|  8> H      -0.00000000     -1.41062078      0.89397293
|  9> Cl      1.46615137      0.17816403     -0.00000009
| 10> Cl     -1.46615137      0.17816403     -0.00000009
| 11> *
| 12>
| 13>
| 14>                          ****END OF INPUT****
 Total Charge           Charge          ....    0
 Multiplicity           Mult            ....    1
 Number of Electrons    NEL             ....   42
MP2 TOTAL ENERGY:     -958.617236906 Eh
FINAL SINGLE POINT ENERGY      -958.617236905771
                    ***********************HURRAY********************

CARTESIAN COORDINATES (ANGSTROEM)
---------------------------------
  C     -0.000000   -0.801422    0.000001
  H      0.000000   -1.410631   -0.893966
  H      0.000000   -1.410625    0.893972
  Cl     1.466148    0.178167   -0.000001
  Cl    -1.466148    0.178167   -0.000001

 Multiplicity           Mult            ....    1
 Number of Electrons    NEL             ....   42
 Basis Dimension        Dim             ....  143

ORBITAL ENERGIES
----------------

  NO   OCC          E(Eh)            E(eV)
   0   2.0000    -104.843997     -2852.9502
   1   2.0000    -104.843995     -2852.9502
   2   2.0000     -11.361176      -309.1533
   3   2.0000     -10.572232      -287.6850
   4   2.0000     -10.572224      -287.6848
   5   2.0000      -8.039149      -218.7564
   6   2.0000      -8.039148      -218.7563
   7   2.0000      -8.037513      -218.7118
   8   2.0000      -8.037512      -218.7118
   9   2.0000      -8.037425      -218.7095
  10   2.0000      -8.037424      -218.7094
  11   2.0000      -1.193646       -32.4808
  12   2.0000      -1.096015       -29.8241
  13   2.0000      -0.894919       -24.3520
  14   2.0000      -0.676850       -18.4180
  15   2.0000      -0.617545       -16.8043
  16   2.0000      -0.585947       -15.9444
  17   2.0000      -0.472876       -12.8676
  18   2.0000      -0.469895       -12.7865
  19   2.0000      -0.446399       -12.1471
  20   2.0000      -0.444512       -12.0958
  21   0.0000       0.136106         3.7036
  22   0.0000       0.175240         4.7685
  23   0.0000       0.188155         5.1200
  24   0.0000       0.191221         5.2034
  25   0.0000       0.285036         7.7562

MULLIKEN ATOMIC CHARGES
-----------------------
   0 C :   -0.099237
   1 H :    0.135505
   2 H :    0.135505
   3 Cl:   -0.085886
   4 Cl:   -0.085886
Sum of atomic charges:   -0.0000000

LOEWDIN ATOMIC CHARGES
----------------------
   0 C :   -0.588138
   1 H :   -0.024930
   2 H :   -0.024930
   3 Cl:    0.318999
   4 Cl:    0.318999

  Mayer bond orders larger than 0.100000
B(  0-C ,  1-H ) :   0.9384 B(  0-C ,  2-H ) :   0.9384 B(  0-C ,  3-Cl) :   1.0274
B(  0-C ,  4-Cl) :   1.0274

MP2 TOTAL ENERGY:     -958.617236874 Eh
FINAL SINGLE POINT ENERGY      -958.617236873977

DIPOLE MOMENT
-------------

Method             : MP2
Type of density    : Electron Density
Multiplicity       :   1
Level              : Relaxed density
Irrep              :   0
Energy             :     0.0000000000000000 Eh
Relativity type    :
Basis              : AO
                                X                 Y                 Z
Electronic contribution:     -0.000000000       2.482073466      -0.000006137
Nuclear contribution   :      0.000000000      -3.123555291       0.000007915
                        -----------------------------------------
Total Dipole Moment    :      0.000000000      -0.641481825       0.000001778
                        -----------------------------------------
Magnitude (a.u.)       :      0.641481825
Magnitude (Debye)      :      1.630517220

Rotational constants in cm-1:             1.081477             0.109444             0.101311
Rotational constants in MHz :         32421.860555          3281.046129          3037.222065

                             ****ORCA TERMINATED NORMALLY****
TOTAL RUN TIME: 0 days 0 hours 0 minutes 39 seconds 984 msec
