                         Program Version 6.0.1  -  RELEASE   -
|  1> ! RKS NORI TPSS DKH2 DKH-def2-TZVP Decontract VERYTIGHTSCF SlowConv
|  2>
|  3> %MaxCore 100000
|  4>
|  5> %basis newgto Cl "old-DKH-TZVP" end
|  6> end
|  7>
|  8> %method
|  9>   SpecialGridAtoms 17
| 10>   SpecialGridIntAcc 7
| 11> end
| 12>
| 13> * xyz 0 1
| 14>   C          -0.00000000001621     -0.80142236709582      0.00000072163835
| 15>   H           0.00000000002945     -1.41063135299497     -0.89396614965566
| 16>   H           0.00000000002903     -1.41062470375924      0.89397212084555
| 17>   Cl          1.46614804313191      0.17816692189874     -0.00000108141425
| 18>   Cl         -1.46614804317418      0.17816692195128     -0.00000108141399
| 19> *
| 20>
| 21> %eprnmr nuclei = all {fgrad}
| 22> end
| 23>
| 24> %rel PictureChange true
| 25> endd                         ****END OF INPUT****

CARTESIAN COORDINATES (ANGSTROEM)
---------------------------------
  C     -0.000000   -0.801422    0.000001
  H      0.000000   -1.410631   -0.893966
  H      0.000000   -1.410625    0.893972
  Cl     1.466148    0.178167   -0.000001
  Cl    -1.466148    0.178167   -0.000001

 Total Charge           Charge          ....    0
 Multiplicity           Mult            ....    1
 Number of Electrons    NEL             ....   42
 Basis Dimension        Dim             ....  154

ORBITAL ENERGIES
----------------

  NO   OCC          E(Eh)            E(eV)
   0   2.0000    -101.336829     -2757.5153
   1   2.0000    -101.336828     -2757.5153
   2   2.0000     -10.112269      -275.1688
   3   2.0000      -9.311802      -253.3870
   4   2.0000      -9.311801      -253.3870
   5   2.0000      -7.031758      -191.3439
   6   2.0000      -7.031757      -191.3438
   7   2.0000      -7.020127      -191.0274
   8   2.0000      -7.020127      -191.0274
   9   2.0000      -7.019413      -191.0080
  10   2.0000      -7.019413      -191.0079
  11   2.0000      -0.851566       -23.1723
  12   2.0000      -0.775939       -21.1144
  13   2.0000      -0.620805       -16.8930
  14   2.0000      -0.460067       -12.5191
  15   2.0000      -0.427814       -11.6414
  16   2.0000      -0.413155       -11.2425
  17   2.0000      -0.297176        -8.0866
  18   2.0000      -0.292352        -7.9553
  19   2.0000      -0.276245        -7.5170
  20   2.0000      -0.270914        -7.3720
  21   0.0000      -0.029194        -0.7944
  22   0.0000       0.008158         0.2220
  23   0.0000       0.039188         1.0664
  24   0.0000       0.068598         1.8667
  25   0.0000       0.160399         4.3647

MULLIKEN ATOMIC CHARGES
-----------------------
   0 C :   -0.395681
   1 H :    0.210809
   2 H :    0.210809
   3 Cl:   -0.012969
   4 Cl:   -0.012969
Sum of atomic charges:    0.0000000

LOEWDIN ATOMIC CHARGES
----------------------
   0 C :   -0.907938
   1 H :    0.093882
   2 H :    0.093882
   3 Cl:    0.360087
   4 Cl:    0.360087

  Mayer bond orders larger than 0.100000
B(  0-C ,  1-H ) :   0.9422 B(  0-C ,  2-H ) :   0.9422 B(  0-C ,  3-Cl) :   1.1216
B(  0-C ,  4-Cl) :   1.1216

FINAL SINGLE POINT ENERGY      -962.645012587559

DIPOLE MOMENT
-------------

Method             : SCF
Type of density    : Electron Density
Multiplicity       :   1
Irrep              :   0
Energy             :  -962.6450125875588810 Eh
Relativity type    :
Basis              : AO
                                X                 Y                 Z
Electronic contribution:     -0.000000001       2.464058556      -0.000006138
Nuclear contribution   :      0.000000000      -3.123555291       0.000007915
                        -----------------------------------------
Total Dipole Moment    :     -0.000000001      -0.659496735       0.000001777
                        -----------------------------------------
Magnitude (a.u.)       :      0.659496735
Magnitude (Debye)      :      1.676307482

Rotational constants in cm-1:             1.081477             0.109444             0.101311
Rotational constants in MHz :         32421.860555          3281.046129          3037.222065

                             ****ORCA TERMINATED NORMALLY****
TOTAL RUN TIME: 0 days 0 hours 0 minutes 25 seconds 737 msec
