                         Program Version 6.0.1  -  RELEASE   -
|  1> ! B3LYP def2-TZVPP
|  2>
|  3> %MaxCore 10000
|  4>
|  5> %elprop
|  6> Polar 1
|  7> end
|  8>
|  9> * xyz 0 1
| 10>   C          -0.00000000001621     -0.80142236709582      0.00000072163835
| 11>   H           0.00000000002945     -1.41063135299497     -0.89396614965566
| 12>   H           0.00000000002903     -1.41062470375924      0.89397212084555
| 13>   Cl          1.46614804313191      0.17816692189874     -0.00000108141425
| 14>   Cl         -1.46614804317418      0.17816692195128     -0.00000108141399
| 15> *
| 16>
| 17>
| 18>                          ****END OF INPUT****

CARTESIAN COORDINATES (ANGSTROEM)
---------------------------------
  C     -0.000000   -0.801422    0.000001
  H      0.000000   -1.410631   -0.893966
  H      0.000000   -1.410625    0.893972
  Cl     1.466148    0.178167   -0.000001
  Cl    -1.466148    0.178167   -0.000001

 Total Charge           Charge          ....    0
 Multiplicity           Mult            ....    1
 Number of Electrons    NEL             ....   42
 Basis Dimension        Dim             ....  143

ORBITAL ENERGIES
----------------

  NO   OCC          E(Eh)            E(eV)
   0   2.0000    -101.530636     -2762.7891
   1   2.0000    -101.530633     -2762.7890
   2   2.0000     -10.289078      -279.9800
   3   2.0000      -9.463100      -257.5040
   4   2.0000      -9.463094      -257.5039
   5   2.0000      -7.224848      -196.5981
   6   2.0000      -7.224845      -196.5980
   7   2.0000      -7.216038      -196.3584
   8   2.0000      -7.216035      -196.3583
   9   2.0000      -7.215644      -196.3476
  10   2.0000      -7.215642      -196.3476
  11   2.0000      -0.907361       -24.6906
  12   2.0000      -0.828552       -22.5460
  13   2.0000      -0.666136       -18.1265
  14   2.0000      -0.499830       -13.6011
  15   2.0000      -0.465361       -12.6631
  16   2.0000      -0.448547       -12.2056
  17   2.0000      -0.332364        -9.0441
  18   2.0000      -0.329152        -8.9567
  19   2.0000      -0.311209        -8.4684
  20   2.0000      -0.306458        -8.3391
  21   0.0000      -0.006873        -0.1870
  22   0.0000       0.031204         0.8491
  23   0.0000       0.050329         1.3695
  24   0.0000       0.079951         2.1756
  25   0.0000       0.159960         4.3527

MULLIKEN ATOMIC CHARGES
-----------------------
   0 C :   -0.111129
   1 H :    0.163802
   2 H :    0.163802
   3 Cl:   -0.108237
   4 Cl:   -0.108238
Sum of atomic charges:   -0.0000000

LOEWDIN ATOMIC CHARGES
----------------------
   0 C :   -0.585931
   1 H :   -0.023700
   2 H :   -0.023700
   3 Cl:    0.316666
   4 Cl:    0.316666

  Mayer bond orders larger than 0.100000
B(  0-C ,  1-H ) :   0.9593 B(  0-C ,  2-H ) :   0.9593 B(  0-C ,  3-Cl) :   1.1104
B(  0-C ,  4-Cl) :   1.1104

FINAL SINGLE POINT ENERGY      -959.617594115832

DIPOLE MOMENT
-------------

Method             : SCF
Type of density    : Electron Density
Multiplicity       :   1
Irrep              :   0
Energy             :  -959.6175941158323894 Eh
Relativity type    :
Basis              : AO
                                X                 Y                 Z
Electronic contribution:      0.000000821       2.480095902      -0.000006297
Nuclear contribution   :      0.000000000      -3.123555291       0.000007915
                        -----------------------------------------
Total Dipole Moment    :      0.000000822      -0.643459389       0.000001618
                        -----------------------------------------
Magnitude (a.u.)       :      0.643459389
Magnitude (Debye)      :      1.635543787

Rotational constants in cm-1:             1.081477             0.109444             0.101311
Rotational constants in MHz :         32421.860555          3281.046129          3037.222065

                             ****ORCA TERMINATED NORMALLY****
TOTAL RUN TIME: 0 days 0 hours 0 minutes 8 seconds 106 msec
